% Model:              galvanized_nail.mph
% Version:            COMSOL 6.2.0.415
% Date:               Oct 29 2024, 17:38
% Table:              Table 5 - 
% r-coordinate (mm)      Oxygen reduction
0                        -0.21206413526978465
0.0219762594983022       -0.20912052463249614
0.0439525189966044       -0.20621758913135543
0.0659287784949066       -0.20335476894018004
0.0879050379932088       -0.2005315119108492
0.109881297491511        -0.19807409400127907
0.1318575569898132       -0.19564665234656284
0.1538338164881154       -0.19324882276032349
0.1758100759864176       -0.1908802454649922
0.19778448520048408      -0.1890100220438378
0.2197588944145506       -0.18715803662944486
0.24173330362861709      -0.18532411210175787
0.26370771284268363      -0.18350807305457809
0.2850000393678363       -0.18215310835827303
0.30629236589298897      -0.18080809962008226
0.3275846924181417       -0.1794729739969545
0.3488770189432944       -0.17814765917680037
0.36855032999176224      -0.177183081532365
0.38822364104023016      -0.17622370012495414
0.4078969520886981       -0.17526948708569765
0.4275702631371659       -0.17432041469461648
0.44541627763345426      -0.17366888728544896
0.46326229212974257      -0.17301978187628758
0.48110830662603093      -0.17237308950559332
0.4989543211223193       -0.17172880124484918
0.515142762946511        -0.17134163742846625
0.5313312047707028       -0.17095534118251213
0.5475196465948946       -0.1705699105730505
0.5637080884190863       -0.1701853436704378
0.5783929159304171       -0.16996090526798552
0.5930777434417478       -0.16973676066585286
0.6077625709530785       -0.16951290948185052
0.6224473984644093       -0.16928935133428377
0.6357682701489548       -0.16921628380845746
0.6490891418335003       -0.1691432473192889
0.6624100135180458       -0.16907024185375993
0.6757308852025913       -0.16899726739885704
0.6878144878932022       -0.16905602958213803
0.6998980905838131       -0.16911481219648436
0.7119816932744241       -0.16917361524899896
0.724065295965035        -0.16923243874678762
0.7350265497060827       -0.16940132927791854
0.7459878034471303       -0.1695703880830922
0.7569490571881781       -0.16973961532971496
0.7679103109292258       -0.16990901118536
0.7778534619533336       -0.17018715440685547
0.7877966129774413       -0.17046575180011717
0.7977397640015491       -0.17074480410504803
0.8076829150256569       -0.17102431206275287
0.8167025273031441       -0.1713998033683623
0.8257221395806312       -0.17177611666905085
0.8347417518581183       -0.17215325375952523
0.8437613641356054       -0.1725312164383996
0.8519432154745229       -0.17301478046233304
0.8601250668134403       -0.17349969549015362
0.8683069181523577       -0.17398596528560187
0.8764887694912752       -0.17447359362287512
0.8839106752513216       -0.17507300759191807
0.8913325810113679       -0.17567447400003236
0.8987544867714142       -0.17627799985393786
0.9061763925314607       -0.1768835921842085
0.9129089367112078       -0.17762868123264633
0.9196414808909549       -0.1783768979713542
0.926374025070702        -0.17912825548904837
0.9331065692504491       -0.17988276692906674
0.9392137775075118       -0.18081811441648948
0.9453209857645744       -0.18175830825863323
0.951428194021637        -0.18270337348687454
0.9575354022786996       -0.18365333526151426
0.9630753577579658       -0.18491764324395768
0.968615313237232        -0.1861906235488759
0.9741552687164983       -0.18747233547151151
0.9796952241957644       -0.18876283871135993
0.9847714181468233       -0.19083666225400425
0.9898476120978822       -0.19293318602749843
0.9949238060489412       -0.19505265769957278
1                        -0.09958364045426746
1                        -0.0028148783335444237
1                        -0.0028197317081242257
1                        -0.0028245934468478597
1                        -0.0028294635641226517
1                        -0.0028343420743807313
1                        -0.002797131178012369
1                        -0.0028015574534890684
1                        -0.002805990730519946
1                        -0.002810431020175682
1                        -0.0027813087136575117
1                        -0.002785255921631722
1                        -0.002789208729718634
1                        -0.002793167145860884
1                        -0.0027670499259009186
1                        -0.0027706077566119164
1                        -0.002774170160888484
1                        -0.002777737144608528
1                        -0.0027542874965128875
1                        -0.002757472575569524
1                        -0.002760661337314002
1                        -0.0027638537860037063
1                        -0.002742858714860835
1                        -0.0027457114570469342
1                        -0.0027485671659937404
1                        -0.0027514258447863065
1                        -0.0027326368018045382
1                        -0.0027351887033135783
1                        -0.002737742987842146
1                        -0.0027402996576154654
1                        -0.0027234438197457113
1                        -0.002725739161860931
1                        -0.002728036438488662
1                        -0.0027303356512592813
1                        -0.0027151192995916625
1                        -0.0027171980411316455
1                        -0.002719278374191496
1                        -0.002721360299989703
1                        -0.0027075663509110127
1                        -0.0027094526160450316
1                        -0.002711340195259408
1                        -0.0027132290894695855
1                        -0.0027006677146865
1                        -0.002702390724208859
1                        -0.002704114832952832
1                        -0.0027058400416196554
1                        -0.0026942916841695237
1                        -0.0026958842793071347
1                        -0.0026974778157349243
1                        -0.002699072294009173
1                        -0.0026883851126278478
1                        -0.0026898605406771056
1                        -0.0026913367783209844
1                        -0.0026928138260036527
1                        -0.0026828746154673572
1                        -0.0026842511802323455
1                        -0.0026856284511059935
1                        -0.0026870064284504006
1                        -0.002677670855822858
1                        -0.0026789708490943796
1                        -0.002680271473254906
1                        -0.002681572728610497
1                        -0.002672759127054451
1                        -0.002673986214396515
1                        -0.0026752138647997653
1                        -0.0026764420785224266
1                        -0.0026680842135657665
1                        -0.002669252175337496
1                        -0.002670420648027276
1                        -0.002671589631858444
1                        -0.0026635728982815844
1                        -0.0026647000120991545
1                        -0.0026658276024514875
1                        -0.002666955669539895
1                        -0.002659221207362815
1                        -0.0026603084638074656
1                        -0.0026613961643213377
1                        -0.0026624843090856235
1                        -0.002654982891547056
1                        -0.002656041837577691
1                        -0.002657101205445285
1                        -0.0026581609953176886
1                        -0.0026508326445929087
1                        -0.0026518695985980976
1                        -0.002652906957653501
1                        -0.0026539447219171308
1                        -0.002646756946532812
1                        -0.0026477752841668895
1                        -0.002648794012954913
1                        -0.002649813133046891
1                        -0.00264268107949462
1                        -0.0026436994585120866
1                        -0.0026447182292573153
1                        -0.002645737391880724
1                        -0.0026385896377114876
1                        -0.002639611905092679
1                        -0.002640634567748547
1                        -0.002641657625831654
1                        -0.0026303161032336458
1                        -0.002631347916089405
1                        -0.0026323801327506123
1                        -0.002633412753374955
1                        -0.002634445778120185
1                        -0.0026354811337898354
1                        -0.0026365168955056356
1                        -0.0026375530634265183
1                        -0.0026260875915842833
1                        -0.00262714408334398
1                        -0.002628200999092245
1                        -0.002629258338998853
1                        -0.0026218446925514428
1                        -0.002622904775957416
1                        -0.002623965286816918
1                        -0.0026250262253018756
1                        -0.0026174163637886967
1                        -0.002618522746208745
1                        -0.0026196295950117964
1                        -0.002620736910393963
1                        -0.0026129221370066093
1                        -0.002614044971901098
1                        -0.0026151682878592284
1                        -0.0026162920850865447
1                        -0.0026032845274386704
1                        -0.002604507002097258
1                        -0.0026057300489995775
1                        -0.0026069536684127383
1                        -0.0026081778606039724
1                        -0.0026093631239226356
1                        -0.0026105489242674927
1                        -0.0026117352618812272
1                        -0.0025981122769793883
1                        -0.002599404378467574
1                        -0.0026006971204957444
1                        -0.002601990503380518
1                        -0.0025926808769212253
1                        -0.002594037665040428
1                        -0.0025953951608444687
1                        -0.0025967533647013835
1                        -0.0025868629884706227
1                        -0.0025883162395364074
1                        -0.0025897703043305286
1                        -0.002591225183307284
1                        -0.002580728878549695
1                        -0.0025822610457049357
1                        -0.0025837941193869716
1                        -0.002585328100130522
1                        -0.0025740846954025705
1                        -0.0025757441412458757
1                        -0.002577404653262805
1                        -0.0025790662321362907
1                        -0.002566971314670705
1                        -0.002568747821257025
1                        -0.002570525553012804
1                        -0.0025723045107803556
1                        -0.0025507819243742653
1                        -0.0025528899083860856
1                        -0.002554999628293682
1                        -0.0025571110855220334
1                        -0.0025592242814972918
1                        -0.0025611588527817775
1                        -0.0025630948813424943
1                        -0.002565032368273759
1                        -0.002541381596251243
1                        -0.0025437284367977133
1                        -0.002546077437012558
1                        -0.0025484285988770445
1                        -0.0025310903052180814
1                        -0.0025336592283816575
1                        -0.0025362307495286006
1                        -0.0025388048712779265
1                        -0.00251949208771416
1                        -0.00252238666774273
1                        -0.0025252845614811663
1                        -0.0025281857727110038
1                        -0.002506428556429828
1                        -0.002509688098136646
1                        -0.0025129518636146033
1                        -0.0025162198583194985
1                        -0.002491441359922968
1                        -0.0024951797664731373
1                        -0.002498923762518512
1                        -0.0025026733563897345
1                        -0.0024750547665437776
1                        -0.0024791413199603493
1                        -0.0024832345959773655
1                        -0.002487334605617879
1                        -0.0024574036129225048
1                        -0.002461804607987247
1                        -0.002466213455963794
1                        -0.0024706301708188236
1                        -0.0024382419438477927
1                        -0.0024430183588767342
1                        -0.0024478040966346925
1                        -0.0024525991752590835
1                        -0.002417691819507276
1                        -0.0024228131146944902
1                        -0.002427945218646589
1                        -0.0024330881541022387
1                        -0.0023958950994573754
1                        -0.0024013258542428147
1                        -0.002406768874095705
1                        -0.002412224186626411
1                        -0.0023726546902132738
1                        -0.0023784436487756353
1                        -0.0023842466804222767
1                        -0.002390063819254843
1                        -0.002348098095639947
1                        -0.0023542134003587695
1                        -0.002360344573646911
1                        -0.0023664916565484385
1                        -0.002322007041807562
1                        -0.0023285025979562428
1                        -0.0023350162587552994
1                        -0.002341548074503745
1                        -0.0022940121539689485
1                        -0.002300979188287387
1                        -0.0023079673052734295
1                        -0.0023149765685190698
1                        -0.002264120444437765
1                        -0.0022715567887177323
1                        -0.002279017468767553
1                        -0.0022865025639707244
1                        -0.002231868698617869
1                        -0.0022398884624716085
1                        -0.0022479369396834477
1                        -0.0022560142327263076
1                        -0.002196448496331571
1                        -0.0022052506857306443
1                        -0.0022140880225555255
1                        -0.002222960646701202
1                        -0.0021571664559229863
1                        -0.0021669208445942462
1                        -0.002176719182483555
1                        -0.002186561666973746
1                        -0.002111893139815207
1                        -0.002123121921611869
1                        -0.002134410191849917
1                        -0.002145758264683984
1                        -0.002055804750696634
1                        -0.002069686127699542
1                        -0.0020836608999432655
1                        -0.0020977296937961095
1                        -0.0019925910806648604
1                        -0.002013444099225983
1                        -0.002034514569131755
1.1111111111111112       -0.0028299983355475284
1.222222222222222        -0.002825661249948688
1.3333333333333333       -0.0028213308073995174
1.4444444444444444       -0.002817006997730922
1.5555555555555554       -0.002813433953913794
1.6666666666666665       -0.0028098654390638672
1.777777777777778        -0.002806301447444538
1.888888888888889        -0.002802741973326468
2                        -0.002799514380464307
2.1111111111111107       -0.002796290501553812
2.2222222222222223       -0.002793070332324886
2.333333333333333        -0.002789853868512361
2.444444444444444        -0.002786735075753067
2.555555555555556        -0.002783619766375745
2.6666666666666665       -0.0027805079364935244
2.7777777777777777       -0.002777399582223851
2.888888888888889        -0.0027742280018624196
3                        -0.0027710600395151053
3.111111111111111        -0.0027678956910590956
3.2222222222222223       -0.002764734952376289
3.3333333333333335       -0.0027613759903806438
3.4444444444444446       -0.0027580211046507367
3.555555555555556        -0.0027546702902458524
3.666666666666667        -0.002751323542231251
3.777777777777778        -0.0027475918604915233
3.8888888888888893       -0.0027438652337054737
4                        -0.0027401436550349473
4.111111111111112        -0.002736427117651055
4.222222222222222        -0.0027320022120481775
4.333333333333334        -0.0027275844512624856
4.4444444444444455       -0.002723173823775533
4.555555555555556        -0.0027187703180874094
4.666666666666668        -0.0027124913406433213
4.777777777777779        -0.002706226837497949
4.888888888888888        -0.002699976775352851
5                        -0.0026937411209860167
5                        -0.0026968075119376315
5                        -0.0026970553373554737
5                        -0.002697303169062331
5                        -0.002697551007058323
5                        -0.0026977988513435767
5                        -0.002695198168673649
5                        -0.0026956004278730706
5                        -0.002696002738146219
5                        -0.0026964050994990833
5                        -0.0026941053252358942
5                        -0.002694469567931354
5                        -0.002694833849076053
